<?xml version="1.0"?>
<VTKFile type="UnstructuredGrid"  version="0.1"  >
<UnstructuredGrid>
<Piece  NumberOfPoints="4" NumberOfCells="2">
<Points>
<DataArray  type="Float64"  NumberOfComponents="3"  format="ascii">0 0 0  1 0 0  0 1 0  1 1 0  </DataArray>
</Points>
<Cells>
<DataArray  type="UInt32"  Name="connectivity"  format="ascii">0 1 3  0 2 3  </DataArray>
<DataArray  type="UInt32"  Name="offsets"  format="ascii">3 6 </DataArray>
<DataArray  type="UInt8"  Name="types"  format="ascii">5 5 </DataArray>
</Cells>
<PointData  Scalars="f_7"> 
<DataArray  type="Float64"  Name="f_7"  format="ascii">1.0000000000000000e+00  2.0000000000000000e+00  3.0000000000000000e+00  4.0000000000000000e+00  </DataArray> 
</PointData> 
</Piece>
</UnstructuredGrid>
</VTKFile>